 /*--------------------------------*- C++ -*----------------------------------*\
   =========
   \\      /  F ield         | OpenFOAM: The OpenSource CFD Toolbox
    \\    /   O peration     | Website:  https://openfoam.org
     \\  /    A nd           | Version:  8
      \\/     M anipulation  |
 \*---------------------------------------------------------------------------*/
 FoamFile
 {
     version     2.0;
     format      ascii;
     class       volScalarField;
     location    "0";
     object      p;
 }
 // * * * * * * * * * * * * * * * * * * * * * * ** * * * * * * * * * * * * * //
 dimensions      [1 -1 -2 0 0 0 0];
 
 internalField   nonuniform List<scalar> 
       20000
 (
   551290.793373127     
   551291.115345835     
   551291.437318842     
   551291.759292150     
   551292.081265759     
   551292.403239669     
   551292.725213879     
   551293.047188390     
   551293.369163201     
   551293.691138314     
   551294.013113726     
   551294.335089439     
   551294.657065453     
   551294.979041767     
   551295.301018382     
   551295.622995298     
   551295.944972514     
   551296.266950031     
   551296.588927849     
   551296.910905967     
   551297.232884385     
   551297.554863105     
   551297.876842125     
   551298.198821445     
   551298.520801066     
   551298.842780988     
   551299.164761211     
   551299.486741733     
   551299.808722557     
   551300.130703681     
   551300.452685106     
   551300.774666831     
   551301.096648857     
   551301.418631184     
   551301.740613811     
   551302.062596739     
   551302.384579967     
   551302.706563497     
   551303.028547327     
   551303.350531457     
   551303.672515888     
   551303.994500619     
   551304.316485652     
   551304.638470984     
   551304.960456618     
   551305.282442552     
   551305.604428787     
   551305.926415322     
   551306.248402158     
   551306.570389294     
   551306.892376732     
   551307.214364469     
   551307.536352508     
   551307.858340847     
   551308.180329486     
   551308.502318427     
   551308.824307668     
   551309.146297209     
   551309.468287051     
   551309.790277194     
   551310.112267637     
   551310.434258381     
   551310.756249426     
   551311.078240771     
   551311.400232417     
   551311.722224364     
   551312.044216611     
   551312.366209159     
   551312.688202007     
   551313.010195156     
   551313.332188606     
   551313.654182356     
   551313.976176407     
   551314.298170759     
   551314.620165411     
   551314.942160364     
   551315.264155617     
   551315.586151171     
   551315.908147026     
   551316.230143182     
   551316.552139637     
   551316.874136394     
   551317.196133452     
   551317.518130810     
   551317.840128468     
   551318.162126427     
   551318.484124687     
   551318.806123247     
   551319.128122108     
   551319.450121270     
   551319.772120733     
   551320.094120496     
   551320.416120559     
   551320.738120923     
   551321.060121588     
   551321.382122554     
   551321.704123820     
   551322.026125387     
   551322.348127255     
   551322.670129423     
   551322.992131892     
   551323.314134661     
   551323.636137731     
   551323.958141102     
   551324.280144773     
   551324.602148745     
   551324.924153018     
   551325.246157591     
   551325.568162465     
   551325.890167639     
   551326.212173114     
   551326.534178890     
   551326.856184967     
   551327.178191344     
   551327.500198022     
   551327.822205000     
   551328.144212280     
   551328.466219859     
   551328.788227739     
   551329.110235921     
   551329.432244402     
   551329.754253185     
   551330.076262268     
   551330.398271651     
   551330.720281336     
   551331.042291321     
   551331.364301606     
   551331.686312192     
   551332.008323079     
   551332.330334267     
   551332.652345755     
   551332.974357544     
   551333.296369634     
   551333.618382024     
   551333.940394714     
   551334.262407706     
   551334.584420998     
   551334.906434591     
   551335.228448484     
   551335.550462678     
   551335.872477173     
   551336.194491969     
   551336.516507064     
   551336.838522461     
   551337.160538159     
   551337.482554157     
   551337.804570456     
   551338.126587055     
   551338.448603955     
   551338.770621156     
   551339.092638657     
   551339.414656459     
   551339.736674562     
   551340.058692965     
   551340.380711669     
   551340.702730674     
   551341.024749979     
   551341.346769586     
   551341.668789492     
   551341.990809699     
   551342.312830207     
   551342.634851016     
   551342.956872126     
   551343.278893535     
   551343.600915246     
   551343.922937258     
   551344.244959570     
   551344.566982182     
   551344.889005095     
   551345.211028310     
   551345.533051824     
   551345.855075640     
   551346.177099755     
   551346.499124172     
   551346.821148890     
   551347.143173908     
   551347.465199226     
   551347.787224846     
   551348.109250766     
   551348.431276987     
   551348.753303508     
   551349.075330330     
   551349.397357453     
   551349.719384876     
   551350.041412600     
   551350.363440625     
   551350.685468951     
   551351.007497577     
   551351.329526504     
   551351.651555731     
   551351.973585260     
   551352.295615088     
   551352.617645218     
   551352.939675648     
   551353.261706379     
   551353.583737410     
   551353.905768743     
   551354.227800376     
   551354.549832309     
   551354.871864544     
   551355.193897078     
   551355.515929914     
   551355.837963051     
   551356.159996488     
   551356.482030225     
   551356.804064264     
   551357.126098603     
   551357.448133243     
   551357.770168183     
   551358.092203424     
   551358.414238966     
   551358.736274809     
   551359.058310951     
   551359.380347396     
   551359.702384140     
   551360.024421185     
   551360.346458531     
   551360.668496178     
   551360.990534125     
   551361.312572373     
   551361.634610922     
   551361.956649771     
   551362.278688921     
   551362.600728372     
   551362.922768123     
   551363.244808175     
   551363.566848528     
   551363.888889182     
   551364.210930136     
   551364.532971391     
   551364.855012947     
   551365.177054803     
   551365.499096960     
   551365.821139418     
   551366.143182176     
   551366.465225235     
   551366.787268595     
   551367.109312256     
   551367.431356217     
   551367.753400479     
   551368.075445042     
   551368.397489905     
   551368.719535068     
   551369.041580533     
   551369.363626299     
   551369.685672365     
   551370.007718731     
   551370.329765399     
   551370.651812367     
   551370.973859636     
   551371.295907205     
   551371.617955076     
   551371.940003247     
   551372.262051719     
   551372.584100491     
   551372.906149564     
   551373.228198938     
   551373.550248612     
   551373.872298588     
   551374.194348864     
   551374.516399440     
   551374.838450317     
   551375.160501496     
   551375.482552974     
   551375.804604754     
   551376.126656834     
   551376.448709215     
   551376.770761896     
   551377.092814879     
   551377.414868162     
   551377.736921745     
   551378.058975630     
   551378.381029815     
   551378.703084301     
   551379.025139087     
   551379.347194174     
   551379.669249562     
   551379.991305251     
   551380.313361241     
   551380.635417531     
   551380.957474121     
   551381.279531013     
   551381.601588205     
   551381.923645698     
   551382.245703492     
   551382.567761586     
   551382.889819981     
   551383.211878677     
   551383.533937674     
   551383.855996971     
   551384.178056569     
   551384.500116468     
   551384.822176667     
   551385.144237167     
   551385.466297968     
   551385.788359070     
   551386.110420472     
   551386.432482175     
   551386.754544179     
   551387.076606483     
   551387.398669088     
   551387.720731994     
   551388.042795201     
   551388.364858708     
   551388.686922517     
   551389.510211006     
   551391.444159932     
   551393.378119703     
   551395.312090317     
   551397.246071775     
   551399.180064076     
   551401.114067222     
   551403.048081212     
   551404.982106046     
   551406.916141724     
   551408.850188246     
   551410.784245613     
   551412.718313825     
   551414.652392881     
   551416.586482781     
   551418.520583526     
   551420.454695116     
   551422.388817551     
   551424.322950831     
   551426.257094957     
   551428.191249927     
   551430.125415743     
   551432.059592404     
   551433.993779910     
   551435.927978262     
   551437.862187459     
   551439.796407503     
   551441.730638392     
   551443.664880126     
   551445.599132707     
   551447.533396134     
   551449.467670407     
   551451.401955526     
   551453.336251492     
   551455.270558304     
   551457.204875962     
   551459.139204467     
   551461.073543819     
   551463.007894017     
   551464.942255062     
   551466.876626955     
   551468.811009694     
   551470.745403280     
   551472.679807713     
   551474.614222994     
   551476.548649122     
   551478.483086097     
   551480.417533920     
   551482.351992590     
   551484.286462108     
   551486.220942475     
   551488.639715971     
   551491.568610634     
   551494.497530163     
   551497.426474560     
   551500.355443824     
   551503.284437955     
   551506.213456955     
   551509.142500823     
   551512.071569559     
   551515.000663165     
   551517.929781640     
   551520.858924984     
   551523.788093198     
   551526.717286283     
   551529.646504238     
   551532.575747063     
   551535.505014760     
   551538.434307328     
   551541.363624767     
   551544.292967079     
   551547.222334263     
   551550.151726319     
   551553.081143248     
   551556.010585051     
   551558.940051727     
   551561.869543276     
   551564.799059700     
   551567.728600998     
   551570.658167170     
   551573.587758218     
   551576.517374141     
   551579.447014940     
   551582.376680614     
   551585.306371165     
   551589.057020787     
   551592.880767489     
   551596.704556566     
   551600.528388020     
   551604.352261851     
   551608.176178060     
   551612.000136647     
   551615.824137614     
   551619.648180961     
   551623.472266688     
   551627.296394797     
   551631.120565287     
   551634.944778160     
   551638.769033417     
   551642.593331057     
   551646.417671082     
   551650.242053493     
   551654.066478289     
   551657.890945472     
   551661.715455042     
   551665.540007001     
   551669.364601348     
   551673.189238083     
   551677.013917210     
   551680.838638727     
   551684.828565219     
   551689.487759093     
   551694.147015874     
   551698.806335562     
   551703.465718158     
   551708.125163665     
   551712.784672083     
   551717.444243412     
   551722.103877656     
   551726.763574814     
   551731.423334888     
   551736.083157879     
   551740.743043788     
   551745.402992617     
   551750.063004367     
   551754.723079039     
   551759.383216634     
   551764.043417153     
   551768.703680598     
   551773.364006970     
   551778.024396270     
   551782.751149701     
   551788.203986106     
   551793.656908659     
   551799.109917362     
   551804.563012216     
   551810.016193226     
   551815.469460391     
   551820.922813715     
   551826.376253198     
   551831.829778843     
   551837.283390652     
   551842.737088627     
   551848.190872770     
   551853.644743082     
   551859.098699565     
   551864.552742223     
   551870.006871055     
   551875.461086066     
   551880.943803402     
   551887.158266735     
   551893.372841945     
   551899.587529034     
   551905.802328005     
   551912.017238861     
   551918.232261605     
   551924.447396240     
   551930.662642768     
   551936.878001193     
   551943.093471517     
   551949.309053744     
   551955.524747875     
   551961.740553915     
   551967.956471865     
   551974.172501729     
   551980.534192550     
   551987.484550816     
   551994.435049000     
   552001.385687106     
   552008.336465138     
   552015.287383100     
   552022.238440997     
   552029.189638832     
   552036.140976609     
   552043.092454332     
   552050.044072005     
   552056.995829633     
   552063.947727219     
   552070.899764768     
   552077.874798407     
   552085.539576797     
   552093.204525320     
   552100.869643981     
   552108.534932787     
   552116.200391742     
   552123.866020851     
   552131.531820121     
   552139.197789556     
   552146.863929161     
   552154.530238943     
   552162.196718907     
   552169.863369057     
   552177.656951671     
   552186.017939421     
   552194.379129582     
   552202.740522159     
   552211.102117162     
   552219.463914596     
   552227.825914468     
   552236.188116786     
   552244.550521556     
   552252.913128786     
   552261.275938483     
   552269.638950652     
   552278.273185859     
   552287.314552322     
   552296.356155438     
   552305.397995218     
   552314.440071669     
   552323.482384801     
   552332.524934622     
   552341.567721141     
   552350.610744367     
   552359.654004309     
   552368.697500975     
   552378.073379384     
   552387.781141491     
   552397.489176377     
   552407.197484054     
   552416.906064533     
   552426.614917824     
   552436.324043939     
   552446.033442888     
   552455.743114682     
   552465.453059333     
   552475.388737509     
   552485.750376488     
   552496.112326182     
   552506.474586602     
   552516.837157764     
   552527.200039679     
   552537.563232362     
   552547.926735825     
   552558.290550082     
   552568.654675146     
   552579.550242728     
   552590.554769064     
   552601.559645807     
   552612.564872971     
   552623.570450574     
   552634.576378632     
   552645.582657158     
   552656.589286171     
   552667.596265685     
   552679.149540319     
   552690.786657069     
   552702.424165605     
   552714.062065945     
   552725.700358108     
   552737.339042114     
   552748.978117980     
   552760.617585725     
   552772.498815761     
   552784.759019615     
   552797.019658265     
   552809.280731734     
   552821.542240043     
   552833.804183215     
   552846.066561271     
   552858.329374233     
   552870.800429916     
   552883.675353128     
   552896.550755752     
   552909.426637814     
   552922.302999340     
   552935.179840354     
   552948.057160882     
   552960.934960951     
   552974.219025975     
   552987.700983445     
   553001.183466510     
   553014.666475200     
   553028.150009543     
   553041.634069570     
   553055.118655308     
   553068.811393390     
   553082.892725789     
   553096.974631467     
   553111.057110455     
   553125.140162788     
   553139.223788499     
   553153.307987621     
   553167.589491345     
   553182.263544264     
   553196.938219636     
   553211.613517499     
   553226.289437891     
   553240.965980850     
   553255.643146413     
   553270.670927866     
   553285.931514894     
   553301.192775015     
   553316.454708273     
   553331.717314707     
   553346.980594362     
   553362.316599212     
   553378.157228345     
   553393.998582601     
   553409.840662028     
   553425.683466673     
   553441.526996582     
   553457.371251805     
   553473.720544157     
   553490.136498457     
   553506.553231366     
   553522.970742936     
   553539.389033221     
   553555.808102271     
   553572.713935047     
   553589.699334094     
   553606.685566569     
   553623.672632528     
   553640.660532030     
   553657.669957223     
   553675.219064555     
   553692.769061426     
   553710.319947901     
   553727.871724043     
   553745.424389917     
   553763.199266814     
   553781.308349478     
   553799.418379191     
   553817.529356023     
   553835.641280044     
   553853.754151325     
   553872.381502988     
   553891.046253517     
   553909.712009923     
   553928.378772284     
   553947.046540678     
   553966.058733260     
   553985.274016801     
   554004.490366268     
   554023.707781746     
   554042.926263319     
   554062.403390989     
   554082.165236481     
   554101.928209221     
   554121.692309301     
   554141.457536812     
   554161.472813358     
   554181.777450619     
   554202.083277706     
   554222.390294720     
   554242.698501760     
   554263.319045553     
   554284.162891136     
   554305.007990369     
   554325.854343359     
   554346.701950213     
   554367.989458620     
   554389.369103166     
   554410.750066412     
   554432.132348475     
   554453.616469221     
   554475.527281239     
   554497.439478101     
   554519.353059931     
   554541.268026854     
   554563.531856842     
   554585.972059533     
   554608.413714531     
   554630.856821970     
   554653.428294846     
   554676.393415216     
   554699.360056406     
   554722.328218560     
   554745.297901822     
   554768.745665814     
   554792.234337480     
   554815.724599796     
   554839.216452915     
   554863.067792678     
   554887.075662752     
   554911.085194314     
   554935.096387531     
   554959.395941169     
   554983.920294293     
   555008.446380886     
   555032.974201125     
   555057.763688640     
   555082.801919814     
   555107.841957571     
   555132.883802097     
   555158.202281947     
   555183.751890708     
   555209.303380288     
   555234.856750886     
   555260.740848614     
   555286.799433685     
   555312.859974929     
   555338.922472552     
   555365.406585118     
   555391.971839483     
   555418.539126478     
   555445.157328833     
   555472.224925235     
   555499.294631589     
   555526.366448129     
   555553.649853006     
   555581.219690960     
   555608.791717503     
   555636.365932879     
   555664.343199905     
   555692.413228137     
   555720.485524676     
   555748.692387002     
   555777.258283405     
   555805.826528636     
   555834.397122972     
   555863.352644178     
   555892.414777083     
   555921.479340673     
   555950.720644703     
   555980.274672608     
   556009.831213813     
   556039.390268623     
   556069.429293538     
   556099.475886161     
   556129.525076050     
   556159.900489938     
   556190.435270518     
   556220.972733049     
   556251.708971158     
   556282.730136440     
   556313.754069376     
   556344.874385821     
   556376.380190385     
   556407.888849317     
   556439.415395029     
   556471.404149066     
   556503.395845194     
   556535.390483798     
   556567.819806702     
   556600.292904743     
   556632.769034001     
   556665.644096766     
   556698.597012996     
   556731.553050178     
   556764.893148783     
   556798.324349184     
   556831.758761267     
   556865.582340631     
   556899.490339156     
   556933.401641078     
   556967.726346800     
   557002.109703725     
   557036.496456746     
   557071.339182953     
   557106.196503327     
   557141.107898873     
   557176.434247145     
   557211.764179327     
   557247.226803250     
   557283.024358003     
   557318.825592269     
   557354.854298969     
   557391.121790116     
   557427.393057348     
   557464.002110084     
   557500.738306901     
   557537.481742770     
   557574.681481201     
   557611.885191147     
   557649.237209203     
   557686.903205843     
   557724.573273429     
   557762.546518463     
   557800.677652861     
   557838.828689710     
   557877.419604392     
   557916.014791074     
   557954.812211522     
   557993.866024762     
   558032.924212266     
   558072.379290230     
   558111.894982709     
   558151.566758447     
   558191.538762178     
   558231.515346796     
   558271.867313664     
   558312.299148739     
   558352.891984369     
   558393.777933530     
   558434.668673867     
   558475.962679982     
   558517.306531216     
   558558.863989825     
   558600.659869912     
   558642.492105713     
   558684.738958281     
   558726.990923852     
   558769.553721875     
   558812.255737333     
   558855.113759489     
   558898.264818727     
   558941.428358256     
   558985.027478945     
   559028.632042525     
   559072.552730915     
   559116.604508222     
   559160.849303074     
   559205.347358481     
   559249.925652116     
   559294.869072099     
   559339.818272862     
   559385.177867686     
   559430.571655129     
   559476.281715095     
   559522.119219248     
   559568.188346262     
   559614.468717779     
   559660.905265465     
   559707.627675173     
   559754.439759071     
   559801.603397528     
   559848.798904771     
   559896.402981848     
   559944.013538042     
   559992.033324832     
   560040.083667628     
   560088.501131223     
   560136.990508766     
   560185.812921753     
   560234.740600324     
   560283.975040687     
   560333.340304347     
   560382.993663017     
   560432.795813248     
   560482.874801298     
   560533.113156674     
   560583.624312175     
   560634.298208028     
   560685.247902587     
   560736.356690700     
   560787.751135703     
   560839.294184000     
   560891.139436568     
   560943.116128823     
   560995.418097504     
   561047.827833056     
   561100.592283264     
   561153.434476743     
   561206.667035952     
   561259.950091485     
   561313.647279736     
   561367.409977133     
   561421.537825349     
   561475.785393821     
   561530.343374389     
   561585.080924093     
   561640.068523448     
   561695.301049660     
   561750.717768055     
   561806.450155167     
   561862.295506458     
   561918.532531814     
   561974.860325955     
   562031.552380821     
   562088.394644678     
   562145.513816753     
   562202.875016053     
   562260.420870709     
   562318.305378171     
   562376.301332596     
   562434.689591838     
   562493.217870613     
   562552.031443395     
   562611.096147220     
   562670.334647423     
   562729.939795934     
   562789.675409223     
   562849.752383778     
   562910.036742592     
   562970.537413678     
   563031.374299445     
   563092.355094868     
   563153.691450079     
   563215.232588671     
   563276.991507513     
   563339.096554769     
   563401.358189268     
   563463.950186860     
   563526.783105040     
   563589.796627445     
   563653.204198784     
   563716.780332441     
   563780.624505579     
   563844.782265129     
   563909.116390859     
   563973.789591502     
   564038.712061347     
   564103.818419910     
   564169.319096588     
   564235.020277758     
   564300.940298955     
   564367.239275226     
   564433.732676683     
   564500.478130630     
   564567.575480075     
   564634.874145795     
   564702.443654199     
   564770.352213680     
   564838.468747992     
   564906.860998340     
   564975.593176743     
   565044.539768058     
   565113.753512096     
   565183.321313318     
   565253.109756364     
   565323.143808641     
   565393.558853148     
   565464.200569841     
   565535.072116063     
   565606.327351389     
   565677.833410421     
   565749.575043437     
   565821.647725889     
   565894.028861144     
   565966.651140282     
   566039.540292217     
   566112.806920095     
   566186.320095766     
   566260.082652667     
   566334.187032334     
   566408.601061849     
   566483.269636411     
   566558.195464790     
   566633.512682434     
   566709.096807253     
   566784.943126651     
   566861.073120861     
   566937.582071387     
   567014.358021182     
   567091.403491444     
   567168.742893263     
   567246.457374994     
   567324.445984061     
   567402.711137974     
   567481.258008573     
   567560.198311412     
   567639.419581754     
   567718.924140186     
   567798.714274741     
   567878.862320812     
   567959.335480211     
   568040.098408602     
   568121.153305370     
   568202.504730782     
   568284.248286359     
   568366.287846839     
   568448.625528585     
   568531.263419911     
   568614.210696536     
   568697.544496076     
   568781.182346038     
   568865.126258615     
   568949.378220192     
   569033.940191882     
   569118.873473896     
   569204.139990299     
   569289.720134324     
   569375.615798703     
   569461.828852878     
   569548.361143479     
   569635.276402399     
   569722.521429079     
   569810.089109938     
   569897.981230072     
   569986.199553526     
   570074.745823711     
   570163.639623673     
   570252.906428493     
   570342.504418924     
   570432.435282928     
   570522.700689400     
   570613.302288546     
   570704.241712248     
   570795.520574429     
   570887.170207809     
   570979.179936354     
   571071.532119200     
   571164.228322275     
   571257.270094881     
   571350.658970017     
   571444.396464694     
   571538.484080246     
   571632.923302628     
   571727.715602718     
   571822.893688123     
   571918.429256517     
   572014.320674783     
   572110.569373847     
   572207.176770654     
   572304.144268433     
   572401.473256957     
   572499.165112797     
   572597.221199575     
   572695.642868206     
   572794.431457142     
   572893.588292600     
   572993.114688799     
   573093.011948183     
   573193.281361640     
   573293.924208723     
   573394.950272278     
   573496.355254117     
   573598.136122192     
   573700.294126572     
   573802.830506798     
   573905.746492075     
   574009.043301466     
   574112.722144082     
   574216.784219267     
   574321.230716782     
   574426.062816977     
   574531.281690974     
   574636.888500831     
   574742.884399718     
   574849.270532076     
   574956.048033782     
   575063.218032310     
   575170.781646884     
   575278.739988632     
   575387.094160739     
   575495.845258593     
   575605.005016219     
   575714.566838297     
   575824.529897679     
   575934.895249963     
   576045.663943797     
   576156.837021007     
   576268.415516730     
   576380.400459534     
   576492.792871545     
   576605.593768567     
   576718.804160200     
   576832.425049962     
   576946.457435398     
   577060.902308197     
   577175.760654304     
   577291.035520009     
   577406.753574810     
   577522.888951732     
   577639.442606848     
   577756.415491123     
   577873.808550521     
   577991.622726090     
   578109.858954070     
   578228.518165979     
   578347.601288709     
   578467.141757283     
   578587.115221867     
   578707.516191718     
   578828.345569283     
   578949.604252917     
   579071.293136965     
   579193.413111843     
   579315.993239593     
   579439.024517348     
   579562.490321039     
   579686.391520032     
   579810.728980234     
   579935.503564168     
   580060.741695642     
   580186.445104245     
   580312.588948208     
   580439.174071650     
   580566.201315723     
   580693.677126371     
   580821.647653301     
   580950.063516787     
   581078.925541635     
   581208.234550076     
   581338.004772634     
   581468.271053695     
   581598.987448228     
   581730.154763996     
   581861.773806541     
   581993.893090118     
   582126.482969290     
   582259.527627917     
   582393.027858800     
   582527.023489290     
   582661.505531966     
   582796.446139993     
   582931.846094771     
   583067.753757752     
   583204.146241958     
   583341.001011713     
   583478.318838259     
   583616.173220346     
   583754.494056143     
   583893.280838166     
   584032.571221092     
   584172.369183468     
   584312.635943637     
   584453.383531326     
   584594.669502287     
   584736.427087560     
   584878.657036304     
   585021.437322014     
   585164.696414861     
   585308.430649753     
   585452.714198060     
   585597.485327113     
   585742.734347565     
   585888.540974721     
   586034.834524887     
   586181.614185379     
   586328.957825913     
   586476.784047992     
   586625.120534540     
   586774.004293913     
   586923.373313737     
   587073.285417581     
   587223.719326200     
   587374.643189890     
   587526.147332219     
   587678.141310537     
   587830.672835668     