 /*--------------------------------*- C++ -*----------------------------------*\
   =========
   \\      /  F ield         | OpenFOAM: The OpenSource CFD Toolbox
    \\    /   O peration     | Website:  https://openfoam.org
     \\  /    A nd           | Version:  8
      \\/     M anipulation  |
 \*---------------------------------------------------------------------------*/
 FoamFile
 {
     version     2.0;
     format      ascii;
     class       volVectorField;
     location    "0";
     object      U;
 }
 // * * * * * * * * * * * * * * * * * * * * * * ** * * * * * * * * * * * * * //
 dimensions      [0 1 -1 0 0 0 0];
 
 internalField   nonuniform List<vector> 
       20000
 (
 (   0.364765832377751       0 0)
 (    1.09429764653483       0 0)
 (    1.82382965989403       0 0)
 (    2.55336187245533       0 0)
 (    3.28289428421874       0 0)
 (    4.01242689518427       0 0)
 (    4.74195970535190       0 0)
 (    5.47149271472164       0 0)
 (    6.20102592329349       0 0)
 (    6.93055933106745       0 0)
 (    7.66009293804352       0 0)
 (    8.38962674422170       0 0)
 (    9.11916074960199       0 0)
 (    9.84869495418439       0 0)
 (    10.5782293579689       0 0)
 (    11.3077639609555       0 0)
 (    12.0372987631443       0 0)
 (    12.7668337645351       0 0)
 (    13.4963689651280       0 0)
 (    14.2259043649231       0 0)
 (    14.9554399639203       0 0)
 (    15.6849757621195       0 0)
 (    16.4145117595209       0 0)
 (    17.1440479561244       0 0)
 (    17.8735843519300       0 0)
 (    18.6031209469377       0 0)
 (    19.3326577411476       0 0)
 (    20.0621947345595       0 0)
 (    20.7917319271736       0 0)
 (    21.5212693189897       0 0)
 (    22.2508069100080       0 0)
 (    22.9803447002283       0 0)
 (    23.7098826896508       0 0)
 (    24.4394208782754       0 0)
 (    25.1689592661021       0 0)
 (    25.8984978531309       0 0)
 (    26.6280366393619       0 0)
 (    27.3575756247949       0 0)
 (    28.0871148094300       0 0)
 (    28.8166541932673       0 0)
 (    29.5461937763066       0 0)
 (    30.2757335585481       0 0)
 (    31.0052735399917       0 0)
 (    31.7348137206374       0 0)
 (    32.4643541004852       0 0)
 (    33.1938946795351       0 0)
 (    33.9234354577871       0 0)
 (    34.6529764352412       0 0)
 (    35.3825176118975       0 0)
 (    36.1120589877558       0 0)
 (    36.8416005628163       0 0)
 (    37.5711423370789       0 0)
 (    38.3006843105435       0 0)
 (    39.0302264832103       0 0)
 (    39.7597688550792       0 0)
 (    40.4893114261502       0 0)
 (    41.2188541964233       0 0)
 (    41.9483971658986       0 0)
 (    42.6779403345759       0 0)
 (    43.4074837024554       0 0)
 (    44.1370272695369       0 0)
 (    44.8665710358206       0 0)
 (    45.5961150013063       0 0)
 (    46.3256591659942       0 0)
 (    47.0552035298842       0 0)
 (    47.7847480929763       0 0)
 (    48.5142928552705       0 0)
 (    49.2438378167669       0 0)
 (    49.9733829774653       0 0)
 (    50.7029283373658       0 0)
 (    51.4324738964685       0 0)
 (    52.1620196547732       0 0)
 (    52.8915656122801       0 0)
 (    53.6211117689891       0 0)
 (    54.3506581249002       0 0)
 (    55.0802046800134       0 0)
 (    55.8097514343287       0 0)
 (    56.5392983878461       0 0)
 (    57.2688455405656       0 0)
 (    57.9983928924873       0 0)
 (    58.7279404436110       0 0)
 (    59.4574881939369       0 0)
 (    60.1870361434649       0 0)
 (    60.9165842921949       0 0)
 (    61.6461326401271       0 0)
 (    62.3756811872614       0 0)
 (    63.1052299335978       0 0)
 (    63.8347788791363       0 0)
 (    64.5643280238770       0 0)
 (    65.2938773678197       0 0)
 (    66.0234269109645       0 0)
 (    66.7529766533115       0 0)
 (    67.4825265948606       0 0)
 (    68.2120767356117       0 0)
 (    68.9416270755650       0 0)
 (    69.6711776147204       0 0)
 (    70.4007283530779       0 0)
 (    71.1302792906375       0 0)
 (    71.8598304273992       0 0)
 (    72.5893817633631       0 0)
 (    73.3189332985290       0 0)
 (    74.0484850328971       0 0)
 (    74.7780369664672       0 0)
 (    75.5075890992395       0 0)
 (    76.2371414312139       0 0)
 (    76.9666939623904       0 0)
 (    77.6962466927690       0 0)
 (    78.4257996223497       0 0)
 (    79.1553527511325       0 0)
 (    79.8849060791174       0 0)
 (    80.6144596063045       0 0)
 (    81.3440133326936       0 0)
 (    82.0735672582849       0 0)
 (    82.8031213830782       0 0)
 (    83.5326757070737       0 0)
 (    84.2622302302713       0 0)
 (    84.9917849526710       0 0)
 (    85.7213398742728       0 0)
 (    86.4508949950767       0 0)
 (    87.1804503150828       0 0)
 (    87.9100058342909       0 0)
 (    88.6395615527011       0 0)
 (    89.3691174703135       0 0)
 (    90.0986735871280       0 0)
 (    90.8282299031445       0 0)
 (    91.5577864183632       0 0)
 (    92.2873431327840       0 0)
 (    93.0169000464069       0 0)
 (    93.7464571592319       0 0)
 (    94.4760144712590       0 0)
 (    95.2055719824883       0 0)
 (    95.9351296929196       0 0)
 (    96.6646876025531       0 0)
 (    97.3942457113886       0 0)
 (    98.1238040194263       0 0)
 (    98.8533625266661       0 0)
 (    99.5829212331080       0 0)
 (    100.312480138752       0 0)
 (    101.042039243598       0 0)
 (    101.771598547646       0 0)
 (    102.501158050897       0 0)
 (    103.230717753349       0 0)
 (    103.960277655004       0 0)
 (    104.689837755860       0 0)
 (    105.419398055919       0 0)
 (    106.148958555180       0 0)
 (    106.878519253643       0 0)
 (    107.608080151308       0 0)
 (    108.337641248175       0 0)
 (    109.067202544245       0 0)
 (    109.796764039516       0 0)
 (    110.526325733989       0 0)
 (    111.255887627665       0 0)
 (    111.985449720543       0 0)
 (    112.715012012623       0 0)
 (    113.444574503905       0 0)
 (    114.174137194389       0 0)
 (    114.903700084075       0 0)
 (    115.633263172963       0 0)
 (    116.362826461054       0 0)
 (    117.092389948346       0 0)
 (    117.821953634841       0 0)
 (    118.551517520538       0 0)
 (    119.281081605436       0 0)
 (    120.010645889537       0 0)
 (    120.740210372840       0 0)
 (    121.469775055346       0 0)
 (    122.199339937053       0 0)
 (    122.928905017962       0 0)
 (    123.658470298074       0 0)
 (    124.388035777388       0 0)
 (    125.117601455903       0 0)
 (    125.847167333621       0 0)
 (    126.576733410541       0 0)
 (    127.306299686663       0 0)
 (    128.035866161987       0 0)
 (    128.765432836513       0 0)
 (    129.494999710242       0 0)
 (    130.224566783172       0 0)
 (    130.954134055305       0 0)
 (    131.683701526640       0 0)
 (    132.413269197177       0 0)
 (    133.142837066915       0 0)
 (    133.872405135857       0 0)
 (    134.601973404000       0 0)
 (    135.331541871345       0 0)
 (    136.061110537892       0 0)
 (    136.790679403642       0 0)
 (    137.520248468593       0 0)
 (    138.249817732747       0 0)
 (    138.979387196103       0 0)
 (    139.708956858661       0 0)
 (    140.438526720421       0 0)
 (    141.168096781383       0 0)
 (    141.897667041547       0 0)
 (    142.627237500914       0 0)
 (    143.356808159482       0 0)
 (    144.086379017253       0 0)
 (    144.815950074225       0 0)
 (    145.545521330400       0 0)
 (    146.275092785777       0 0)
 (    147.004664440356       0 0)
 (    147.734236294137       0 0)
 (    148.463808347120       0 0)
 (    149.193380599306       0 0)
 (    149.922953050693       0 0)
 (    150.652525701283       0 0)
 (    151.382098551074       0 0)
 (    152.111671600068       0 0)
 (    152.841244848264       0 0)
 (    153.570818295662       0 0)
 (    154.300391942262       0 0)
 (    155.029965788065       0 0)
 (    155.759539833069       0 0)
 (    156.489114077275       0 0)
 (    157.218688520684       0 0)
 (    157.948263163295       0 0)
 (    158.677838005107       0 0)
 (    159.407413046122       0 0)
 (    160.136988286339       0 0)
 (    160.866563725758       0 0)
 (    161.596139364380       0 0)
 (    162.325715202203       0 0)
 (    163.055291239228       0 0)
 (    163.784867475456       0 0)
 (    164.514443910885       0 0)
 (    165.244020545517       0 0)
 (    165.973597379351       0 0)
 (    166.703174412387       0 0)
 (    167.432751644625       0 0)
 (    168.162329076065       0 0)
 (    168.891906706708       0 0)
 (    169.621484536552       0 0)
 (    170.351062565599       0 0)
 (    171.080640793847       0 0)
 (    171.810219221298       0 0)
 (    172.539797847951       0 0)
 (    173.269376673806       0 0)
 (    173.998955698863       0 0)
 (    174.728534923122       0 0)
 (    175.458114346583       0 0)
 (    176.187693969247       0 0)
 (    176.917273791112       0 0)
 (    177.646853812180       0 0)
 (    178.376434032450       0 0)
 (    179.106014451922       0 0)
 (    179.835595070595       0 0)
 (    180.565175888472       0 0)
 (    181.294756905550       0 0)
 (    182.024338121830       0 0)
 (    182.753919537312       0 0)
 (    183.483501151997       0 0)
 (    184.213082965883       0 0)
 (    184.942664978972       0 0)
 (    185.672247191263       0 0)
 (    186.401829602756       0 0)
 (    187.131412213451       0 0)
 (    187.860995023348       0 0)
 (    188.590578032447       0 0)
 (    189.320161240749       0 0)
 (    190.049744648252       0 0)
 (    190.779328254958       0 0)
 (    191.508912060866       0 0)
 (    192.238496065975       0 0)
 (    192.968080270287       0 0)
 (    193.697664673801       0 0)
 (    194.427249276518       0 0)
 (    195.156834078436       0 0)
 (    195.886419079556       0 0)
 (    196.616004279879       0 0)
 (    197.345589679403       0 0)
 (    198.075175278130       0 0)
 (    198.804761076059       0 0)
 (    199.534347073190       0 0)
 (    200.263933269523       0 0)
 (    200.993519665058       0 0)
 (    201.723106259795       0 0)
 (    202.452693053734       0 0)
 (    203.182280046876       0 0)
 (    203.911867239220       0 0)
 (    204.641454630765       0 0)
 (    205.371042221513       0 0)
 (    206.100630011463       0 0)
 (    206.830218000615       0 0)
 (    207.559806188969       0 0)
 (    208.289394576525       0 0)
 (    209.018983163284       0 0)
 (    209.748571949244       0 0)
 (    210.478160934407       0 0)
 (    211.207750118771       0 0)
 (    211.937339502338       0 0)
 (    212.666929085107       0 0)
 (    213.396518867078       0 0)
 (    214.126108848251       0 0)
 (    214.855699028626       0 0)
 (    215.585289408204       0 0)
 (    216.314879986983       0 0)
 (    217.044470764965       0 0)
 (    217.774061742148       0 0)
 (    218.503652918534       0 0)
 (    219.233244294122       0 0)
 (    219.962835868912       0 0)
 (    220.692427642904       0 0)
 (    221.422019616098       0 0)
 (    222.151611788495       0 0)
 (    222.881251514946       0 0)
 (    223.610997026779       0 0)
 (    224.340743734786       0 0)
 (    225.070491638968       0 0)
 (    225.800240739325       0 0)
 (    226.529991035855       0 0)
 (    227.259742528561       0 0)
 (    227.989495217441       0 0)
 (    228.719249102496       0 0)
 (    229.449004183725       0 0)
 (    230.178760461129       0 0)
 (    230.908517934707       0 0)
 (    231.638276604460       0 0)
 (    232.368036470387       0 0)
 (    233.097797532489       0 0)
 (    233.827559790765       0 0)
 (    234.557323245216       0 0)
 (    235.287087895842       0 0)
 (    236.016853742642       0 0)
 (    236.746620785616       0 0)
 (    237.476389024765       0 0)
 (    238.206158460089       0 0)
 (    238.935929091587       0 0)
 (    239.665700919260       0 0)
 (    240.395473943107       0 0)
 (    241.125248163129       0 0)
 (    241.855023579325       0 0)
 (    242.584800191696       0 0)
 (    243.314578000241       0 0)
 (    244.044357004961       0 0)
 (    244.774137205856       0 0)
 (    245.503918602925       0 0)
 (    246.233701196168       0 0)
 (    246.963484985586       0 0)
 (    247.693269971179       0 0)
 (    248.423056152946       0 0)
 (    249.152843530888       0 0)
 (    249.882632105004       0 0)
 (    250.612421875295       0 0)
 (    251.342212841760       0 0)
 (    252.072005004400       0 0)
 (    252.801798363214       0 0)
 (    253.531592918203       0 0)
 (    254.261388669366       0 0)
 (    254.991185616704       0 0)
 (    255.720983760217       0 0)
 (    256.450783099904       0 0)
 (    257.180583635766       0 0)
 (    257.910385367802       0 0)
 (    258.640188296012       0 0)
 (    259.369992420398       0 0)
 (    260.099851117985       0 0)
 (    260.829767691520       0 0)
 (    261.559686076094       0 0)
 (    262.289606271708       0 0)
 (    263.019528278361       0 0)
 (    263.749452096053       0 0)
 (    264.479377724784       0 0)
 (    265.209305164555       0 0)
 (    265.939234415365       0 0)
 (    266.669165477215       0 0)
 (    267.399098350103       0 0)
 (    268.129033034031       0 0)
 (    268.858969528998       0 0)
 (    269.588907835005       0 0)
 (    270.318847952051       0 0)
 (    271.048789880136       0 0)
 (    271.778733619260       0 0)
 (    272.508679169424       0 0)
 (    273.238626530627       0 0)
 (    273.968575702869       0 0)
 (    274.698526686151       0 0)
 (    275.428479480471       0 0)
 (    276.158434085832       0 0)
 (    276.888390502231       0 0)
 (    277.618348729670       0 0)
 (    278.348308768148       0 0)
 (    279.078270617665       0 0)
 (    279.808234278222       0 0)
 (    280.538199749818       0 0)
 (    281.268167032453       0 0)
 (    281.998136126128       0 0)
 (    282.728107030841       0 0)
 (    283.458079746595       0 0)
 (    284.188054273387       0 0)
 (    284.918129694291       0 0)
 (    285.648216273743       0 0)
 (    286.378305216862       0 0)
 (    287.108396523648       0 0)
 (    287.838490194100       0 0)
 (    288.568586228219       0 0)
 (    289.298684626006       0 0)
 (    290.028785387459       0 0)
 (    290.758888512579       0 0)
 (    291.488994001366       0 0)
 (    292.219101853820       0 0)
 (    292.949212069940       0 0)
 (    293.679324649728       0 0)
 (    294.409439593182       0 0)
 (    295.139556900303       0 0)
 (    295.869676571091       0 0)
 (    296.599798605546       0 0)
 (    297.329923003668       0 0)
 (    298.060049765457       0 0)
 (    298.790178890913       0 0)
 (    299.520310380035       0 0)
 (    300.250444232824       0 0)
 (    300.980580449280       0 0)
 (    301.710719029403       0 0)
 (    302.440859973193       0 0)
 (    303.171024485335       0 0)
 (    303.901277588029       0 0)
 (    304.631533570022       0 0)
 (    305.361792431315       0 0)
 (    306.092054171908       0 0)
 (    306.822318791800       0 0)
 (    307.552586290992       0 0)
 (    308.282856669484       0 0)
 (    309.013129927276       0 0)
 (    309.743406064367       0 0)
 (    310.473685080758       0 0)
 (    311.203966976448       0 0)
 (    311.934251751439       0 0)
 (    312.664539405729       0 0)
 (    313.394829939318       0 0)
 (    314.125123352208       0 0)
 (    314.855419644397       0 0)
 (    315.585718815885       0 0)
 (    316.316020866674       0 0)
 (    317.046325796762       0 0)
 (    317.776633606150       0 0)
 (    318.506953234713       0 0)
 (    319.237373900701       0 0)
 (    319.967797935486       0 0)
 (    320.698225339068       0 0)
 (    321.428656111447       0 0)
 (    322.159090252622       0 0)
 (    322.889527762595       0 0)
 (    323.619968641364       0 0)
 (    324.350412888931       0 0)
 (    325.080860505294       0 0)
 (    325.811311490455       0 0)
 (    326.541765844412       0 0)
 (    327.272223567166       0 0)
 (    328.002684658717       0 0)
 (    328.733149119065       0 0)
 (    329.463616948210       0 0)
 (    330.194088146152       0 0)
 (    330.924562712891       0 0)
 (    331.655044636851       0 0)
 (    332.385632865302       0 0)
 (    333.116224931993       0 0)
 (    333.846820836922       0 0)
 (    334.577420580089       0 0)
 (    335.308024161495       0 0)
 (    336.038631581140       0 0)
 (    336.769242839023       0 0)
 (    337.499857935145       0 0)
 (    338.230476869506       0 0)
 (    338.961099642105       0 0)
 (    339.691726252943       0 0)
 (    340.422356702019       0 0)
 (    341.152990989335       0 0)
 (    341.883629114888       0 0)
 (    342.614271078680       0 0)
 (    343.344938022710       0 0)
 (    344.075694565845       0 0)
 (    344.806455400487       0 0)
 (    345.537220526636       0 0)
 (    346.267989944292       0 0)
 (    346.998763653454       0 0)
 (    347.729541654122       0 0)
 (    348.460323946298       0 0)
 (    349.191110529980       0 0)
 (    349.921901405168       0 0)
 (    350.652696571863       0 0)
 (    351.383496030065       0 0)
 (    352.114299779773       0 0)
 (    352.845107820988       0 0)
 (    353.575923571543       0 0)
 (    354.306846959574       0 0)
 (    355.037775078892       0 0)
 (    355.768707929497       0 0)
 (    356.499645511390       0 0)
 (    357.230587824569       0 0)
 (    357.961534869036       0 0)
 (    358.692486644791       0 0)
 (    359.423443151832       0 0)
 (    360.154404390161       0 0)
 (    360.885370359777       0 0)
 (    361.616341060680       0 0)
 (    362.347316492870       0 0)
 (    363.078316114977       0 0)
 (    363.809407792026       0 0)
 (    364.540504628620       0 0)
 (    365.271606624758       0 0)
 (    366.002713780441       0 0)
 (    366.733826095669       0 0)
 (    367.464943570442       0 0)
 (    368.196066204759       0 0)
 (    368.927193998621       0 0)
 (    369.658326952028       0 0)
 (    370.389465064979       0 0)
 (    371.120608337475       0 0)
 (    371.851799363585       0 0)
 (    372.583059791841       0 0)
 (    373.314325797872       0 0)
 (    374.045597381676       0 0)
 (    374.776874543255       0 0)
 (    375.508157282607       0 0)
 (    376.239445599734       0 0)
 (    376.970739494635       0 0)
 (    377.702038967310       0 0)
 (    378.433344017760       0 0)
 (    379.164654645983       0 0)
 (    379.896024164076       0 0)
 (    380.627452794871       0 0)
 (    381.358887412815       0 0)
 (    382.090328017908       0 0)
 (    382.821774610151       0 0)
 (    383.553227189544       0 0)
 (    384.284685756085       0 0)
 (    385.016150309777       0 0)
 (    385.747620850617       0 0)
 (    386.479097378607       0 0)
 (    387.210616766966       0 0)
 (    387.942212028165       0 0)
 (    388.673813677978       0 0)
 (    389.405421716406       0 0)
 (    390.137036143449       0 0)
 (    390.868656959107       0 0)
 (    391.600284163379       0 0)
 (    392.331917756266       0 0)
 (    393.063557737768       0 0)
 (    393.795204107885       0 0)
 (    394.526945341929       0 0)
 (    395.258711417861       0 0)
 (    395.990484276737       0 0)
 (    396.722263918559       0 0)
 (    397.454050343326       0 0)
 (    398.185843551038       0 0)
 (    398.917643541694       0 0)
 (    399.649450315295       0 0)
 (    400.381263871842       0 0)
 (    401.113176641837       0 0)
 (    401.845110685831       0 0)
 (    402.577051900611       0 0)
 (    403.309000286178       0 0)
 (    404.040955842531       0 0)
 (    404.772918569671       0 0)
 (    405.504888467596       0 0)
 (    406.236865536308       0 0)
 (    406.968891224462       0 0)
 (    407.700989354504       0 0)
 (    408.433095037232       0 0)
 (    409.165208272646       0 0)
 (    409.897329060746       0 0)
 (    410.629457401531       0 0)
 (    411.361593295002       0 0)
 (    412.093736741159       0 0)
 (    412.825923926996       0 0)
 (    413.558189165017       0 0)
 (    414.290462332149       0 0)
 (    415.022743428393       0 0)
 (    415.755032453747       0 0)
 (    416.487329408213       0 0)
 (    417.219634291790       0 0)
 (    417.951947104478       0 0)
 (    418.684339486701       0 0)
 (    419.416774954602       0 0)
 (    420.149218722970       0 0)
 (    420.881670791806       0 0)
 (    421.614131161109       0 0)
 (    422.346599830879       0 0)
 (    423.079076801117       0 0)
 (    423.811599165050       0 0)
 (    424.544199400772       0 0)
 (    425.276808303602       0 0)
 (    426.009425873539       0 0)
 (    426.742052110584       0 0)
 (    427.474687014736       0 0)
 (    428.207330585996       0 0)
 (    428.940018384745       0 0)
 (    429.672785938397       0 0)
 (    430.405562521391       0 0)
 (    431.138348133728       0 0)
 (    431.871142775408       0 0)
 (    432.603946446430       0 0)
 (    433.336759146794       0 0)
 (    434.069644874680       0 0)
 (    434.802582367149       0 0)
 (    435.535529247065       0 0)
 (    436.268485514429       0 0)
 (    437.001451169240       0 0)
 (    437.734426211499       0 0)
 (    438.467423945736       0 0)
 (    439.200524316840       0 0)
 (    439.933634429611       0 0)
 (    440.666754284051       0 0)
 (    441.399883880159       0 0)
 (    442.133023217935       0 0)
 (    442.866172297379       0 0)
 (    443.599425295902       0 0)
 (    444.332700670326       0 0)
 (    445.065986136973       0 0)
 (    445.799281695844       0 0)
 (    446.532587346939       0 0)
 (    447.265903090258       0 0)
 (    447.999320550908       0 0)
 (    448.732763271290       0 0)
 (    449.466216430985       0 0)
 (    450.199680029994       0 0)
 (    450.933154068316       0 0)
 (    451.666642477959       0 0)
 (    452.400243894178       0 0)
 (    453.133856093514       0 0)
 (    453.867479075966       0 0)
 (    454.601112841534       0 0)
 (    455.334757390219       0 0)
 (    456.068455173570       0 0)
 (    456.802227903902       0 0)
 (    457.536011758030       0 0)
 (    458.269806735954       0 0)
 (    459.003612837673       0 0)
 (    459.737430063187       0 0)
 (    460.471357828156       0 0)
 (    461.205304089215       0 0)
 (    461.939261811775       0 0)
 (    462.673230995834       0 0)
 (    463.407211641394       0 0)
 (    464.141270740378       0 0)
 (    464.875380985707       0 0)
 (    465.609503027403       0 0)
 (    466.343636865466       0 0)
 (    467.077782499896       0 0)
 (    467.811990559074       0 0)
 (    468.546266403777       0 0)
 (    469.280554377002       0 0)
 (    470.014854478748       0 0)
 (    470.749166709016       0 0)
 (    471.483540362184       0 0)
 (    472.217983455342       0 0)
 (    472.952439006580       0 0)
 (    473.686907015896       0 0)
 (    474.421387483291       0 0)
 (    475.155942484737       0 0)
 (    475.890554506064       0 0)
 (    476.625179312538       0 0)
 (    477.359816904158       0 0)
 (    478.094467280925       0 0)
 (    478.829218602212       0 0)
 (    479.564001259096       0 0)
 (    480.298797025803       0 0)
 (    481.033605902335       0 0)
 (    481.768448209396       0 0)
 (    482.503389802068       0 0)
 (    483.238344826943       0 0)
 (    483.973313284021       0 0)
 (    484.708295173303       0 0)
 (    485.443361249789       0 0)
 (    486.178476645424       0 0)
 (    486.913605793428       0 0)
 (    487.648748693803       0 0)
 (    488.383931337928       0 0)
 (    489.119208244000       0 0)
 (    489.854499220476       0 0)
 (    490.589804267357       0 0)
 (    491.325123384642       0 0)
 (    492.060554867653       0 0)
 (    492.796008835121       0 0)
 (    493.531477188972       0 0)
 (    494.266959929204       0 0)
 (    495.002531293728       0 0)
 (    495.738149437709       0 0)
 (    496.473782282063       0 0)
 (    497.209429826789       0 0)
 (    497.945151875965       0 0)
 (    498.680935403190       0 0)
 (    499.416733942858       0 0)
 (    500.152547494969       0 0)
 (    500.888430583290       0 0)
 (    501.624380720078       0 0)
 (    502.360346179521       0 0)
 (    503.096326961619       0 0)
 (    503.832381034113       0 0)
 (    504.568499024897       0 0)
 (    505.304632646749       0 0)
 (    506.040781899668       0 0)
 (    506.777016526746       0 0)
 (    507.513303632729       0 0)
 (    508.249606676447       0 0)
 (    508.985925657900       0 0)
 (    509.722350066466       0 0)
 (    510.458807564389       0 0)
 (    511.195281305024       0 0)
 (    511.931781754666       0 0)
 (    512.668394389646       0 0)
 (    513.405023570670       0 0)
 (    514.141669297737       0 0)
 (    514.878376664467       0 0)
 (    515.615161985356       0 0)
 (    516.351964154025       0 0)
 (    517.088783170475       0 0)
 (    517.825705789387       0 0)
 (    518.562665114721       0 0)
 (    519.299641588020       0 0)
 (    520.036663955296       0 0)
 (    520.773781168493       0 0)
 (    521.510915828333       0 0)
 (    522.248067934816       0 0)
 (    522.985321055524       0 0)
 (    523.722614646807       0 0)
 (    524.459925981940       0 0)
 (    525.197293285899       0 0)
 (    525.934746567842       0 0)
 (    526.672217889413       0 0)
 (    527.409707250612       0 0)
 (    528.147319901588       0 0)
 (    528.884951980905       0 0)
 (    529.622602394232       0 0)
 (    530.360342759143       0 0)
 (    531.098136380259       0 0)
 (    531.835948628411       0 0)
 (    532.573823066394       0 0)
 (    533.311779025391       0 0)
 (    534.049753903122       0 0)
 (    534.787768576638       0 0)
 (    535.525887680953       0 0)
 (    536.264025994406       0 0)
 (    537.002186882103       0 0)
 (    537.740469949905       0 0)
 (    538.478772515985       0 0)
 (    539.217094580344       0 0)
 (    539.955533284105       0 0)
 (    540.694000929893       0 0)
 (    541.432488361866       0 0)
 (    542.171084994016       0 0)
 (    542.909718556222       0 0)
 (    543.648372191312       0 0)
 (    544.387132257612       0 0)
 (    545.125932582061       0 0)
 (    545.864753264915       0 0)
 (    546.603682128571       0 0)
 (    547.342650069728       0 0)
 (    548.081638653656       0 0)
 (    548.820741543820       0 0)
 (    549.559877964335       0 0)
 (    550.299035310858       0 0)
 (    551.038317330486       0 0)
 (    551.777623100775       0 0)
 (    552.516961703667       0 0)
 (    553.256416212323       0 0)
 (    553.995892210168       0 0)
 (    554.735419474648       0 0)
 (    555.475044815648       0 0)
 (    556.214691925824       0 0)
 (    556.954412609035       0 0)
 (    557.694209674835       0 0)
 (    558.434028788761       0 0)
 (    559.173947548070       0 0)
 (    559.913917237417       0 0)
 (    560.653910036560       0 0)
 (    561.394030651192       0 0)
 (    562.134173868811       0 0)
 (    562.874373423054       0 0)
 (    563.614668200414       0 0)
 (    564.354985856710       0 0)
 (    565.095396547530       0 0)
 (    565.835866404390       0 0)
 (    566.576363113667       0 0)
 (    567.316985543955       0 0)
 (    568.057631402212       0 0)
 (    568.798347395174       0 0)
 (    569.539146480513       0 0)
 (    570.279969266939       0 0)
 (    571.020908690176       0 0)
 (    571.761885362888       0 0)
 (    572.502921988329       0 0)
 (    573.244052940528       0 0)
 (    573.985208137335       0 0)
 (    574.726475884956       0 0)
 (    575.467786031729       0 0)
 (    576.209158005988       0 0)
 (    576.950623508489       0 0)
 (    577.692113795602       0 0)
 (    578.433724312119       0 0)
 (    579.175370635790       0 0)
 (    579.917092118632       0 0)
 (    580.658894896243       0 0)
 (    581.400730538750       0 0)
 (    582.142690193584       0 0)
 (    582.884675436705       0 0)
 (    583.626760081947       0 0)
 (    584.368902897511       0 0)
 (    585.111108055828       0 0)
 (    585.853408877481       0 0)
 (    586.595737552768       0 0)
 (    587.338196819446       0 0)
 (    588.080682470810       0 0)
 (    588.823270111624       0 0)
 (    589.565914915962       0 0)
 (    590.308632090013       0 0)
 (    591.051436495528       0 0)
 (    591.794286040650       0 0)
 (    592.537250500309       0 0)
 (    593.280242134120       0 0)
 (    594.023360173114       0 0)
 (    594.766512580301       0 0)
 (    595.509768710790       0 0)
 (    596.253082352628       0 0)
 (    596.996479266133       0 0)
 (    597.739954608197       0 0)
 (    598.483494949707       0 0)
 (    599.227132461723       0 0)
 (    599.970818831560       0 0)
 (    600.714618987266       0 0)
 (    601.458453942851       0 0)
 (    602.202417219863       0 0)
 (    602.946409230372       0 0)
 (    603.690530157081       0 0)
 (    604.434686027735       0 0)
 (    605.178960760484       0 0)
 (    605.923280975609       0 0)
 (    606.667711957031       0 0)
 (    607.412197004472       0 0)
 (    608.156786640403       0 0)
 (    608.901437011406       0 0)
 (    609.646187672262       0 0)
 (    610.391003861365       0 0)
 (    611.135917883454       0 0)
 (    611.880900388383       0 0)